[
  {
    "atomicNumber": 1,
    "symbol": "H",
    "name": "Hydrogen",
    "electronConfiguration": "1s1",
    "nobleGasConfiguration": "1s1",
    "ionizationEnergy": "Low",
    "electronegativity": "Low",
    "atomicSize": "Small",
    "ionicSize": "Small",
    "oxidationStates": "+1",
    "electricalConductivity": "None",
    "magneticProperties": "None",
    "meltingPoint": "-259.16°C",
    "boilingPoint": "-252.87°C",
    "electronAffinity": "72.8 kJ/mol",
    "latticeEnergy": "N/A"
  },
  {
    "atomicNumber": 2,
    "symbol": "He",
    "name": "Helium",
    "electronConfiguration": "1s2",
    "nobleGasConfiguration": "1s2",
    "ionizationEnergy": "High",
    "electronegativity": "N/A",
    "atomicSize": "Small",
    "ionicSize": "N/A",
    "oxidationStates": "0",
    "electricalConductivity": "None",
    "magneticProperties": "None",
    "meltingPoint": "-272.20°C",
    "boilingPoint": "-268.93°C",
    "electronAffinity": "N/A",
    "latticeEnergy": "N/A"
  },
  {
    "atomicNumber": 3,
    "symbol": "Li",
    "name": "Lithium",
    "electronConfiguration": "1s2 2s1",
    "nobleGasConfiguration": "[He] 2s1",
    "ionizationEnergy": "Low",
    "electronegativity": "Low",
    "atomicSize": "Small",
    "ionicSize": "Smaller (Li+)",
    "oxidationStates": "+1",
    "electricalConductivity": "High",
    "magneticProperties": "Paramagnetic",
    "meltingPoint": "180.5°C",
    "boilingPoint": "1330°C",
    "electronAffinity": "59.6 kJ/mol",
    "latticeEnergy": "853 kJ/mol"
  },
  {
    "atomicNumber": 4,
    "symbol": "Be",
    "name": "Beryllium",
    "electronConfiguration": "1s2 2s2",
    "nobleGasConfiguration": "[He] 2s2",
    "ionizationEnergy": "Low",
    "electronegativity": "Low",
    "atomicSize": "Small",
    "ionicSize": "Smaller (Be2+)",
    "oxidationStates": "+2",
    "electricalConductivity": "Moderate",
    "magneticProperties": "Paramagnetic",
    "meltingPoint": "1287°C",
    "boilingPoint": "2469°C",
    "electronAffinity": "0 kJ/mol",
    "latticeEnergy": "3327 kJ/mol"
  },
  {
    "atomicNumber": 5,
    "symbol": "B",
    "name": "Boron",
    "electronConfiguration": "1s2 2s2 2p1",
    "nobleGasConfiguration": "[He] 2s2 2p1",
    "ionizationEnergy": "Moderate",
    "electronegativity": "Moderate",
    "atomicSize": "Small",
    "ionicSize": "Small (B3+)",
    "oxidationStates": "+3",
    "electricalConductivity": "Semiconductor",
    "magneticProperties": "Diamagnetic",
    "meltingPoint": "2076°C",
    "boilingPoint": "3927°C",
    "electronAffinity": "-27 kJ/mol",
    "latticeEnergy": "7236 kJ/mol"
  },
  {
    "atomicNumber": 6,
    "symbol": "C",
    "name": "Carbon",
    "electronConfiguration": "1s2 2s2 2p2",
    "nobleGasConfiguration": "[He] 2s2 2p2",
    "ionizationEnergy": "Moderate",
    "electronegativity": "High",
    "atomicSize": "Small",
    "ionicSize": "N/A",
    "oxidationStates": "+4, +2",
    "electricalConductivity": "Semiconductor (graphite)",
    "magneticProperties": "Diamagnetic",
    "meltingPoint": "3550°C",
    "boilingPoint": "4027°C",
    "electronAffinity": "153.9 kJ/mol",
    "latticeEnergy": "N/A"
  },
  {
    "atomicNumber": 7,
    "symbol": "N",
    "name": "Nitrogen",
    "electronConfiguration": "1s2 2s2 2p3",
    "nobleGasConfiguration": "[He] 2s2 2p3",
    "ionizationEnergy": "High",
    "electronegativity": "High",
    "atomicSize": "Small",
    "ionicSize": "Small (N3-)",
    "oxidationStates": "-3, +5, +3",
    "electricalConductivity": "None",
    "magneticProperties": "Diamagnetic",
    "meltingPoint": "-210°C",
    "boilingPoint": "-196°C",
    "electronAffinity": "-7 kJ/mol",
    "latticeEnergy": "N/A"
  },
  {
    "atomicNumber": 8,
    "symbol": "O",
    "name": "Oxygen",
    "electronConfiguration": "1s2 2s2 2p4",
    "nobleGasConfiguration": "[He] 2s2 2p4",
    "ionizationEnergy": "High",
    "electronegativity": "High",
    "atomicSize": "Small",
    "ionicSize": "Small (O2-)",
    "oxidationStates": "-2",
    "electricalConductivity": "None",
    "magneticProperties": "Paramagnetic",
    "meltingPoint": "-218.79°C",
    "boilingPoint": "-182.96°C",
    "electronAffinity": "141 kJ/mol",
    "latticeEnergy": "N/A"
  },
  {
    "atomicNumber": 9,
    "symbol": "F",
    "name": "Fluorine",
    "electronConfiguration": "1s2 2s2 2p5",
    "nobleGasConfiguration": "[He] 2s2 2p5",
    "ionizationEnergy": "Very High",
    "electronegativity": "Very High",
    "atomicSize": "Small",
    "ionicSize": "Small (F-)",
    "oxidationStates": "-1",
    "electricalConductivity": "None",
    "magneticProperties": "Diamagnetic",
    "meltingPoint": "-219.67°C",
    "boilingPoint": "-188.11°C",
    "electronAffinity": "328 kJ/mol",
    "latticeEnergy": "N/A"
  },
  {
    "atomicNumber": 10,
    "symbol": "Ne",
    "name": "Neon",
    "electronConfiguration": "1s2 2s2 2p6",
    "nobleGasConfiguration": "[He] 2s2 2p6",
    "ionizationEnergy": "Very High",
    "electronegativity": "N/A",
    "atomicSize": "Small",
    "ionicSize": "N/A",
    "oxidationStates": "0",
    "electricalConductivity": "None",
    "magneticProperties": "None",
    "meltingPoint": "-248.59°C",
    "boilingPoint": "-246.08°C",
    "electronAffinity": "N/A",
    "latticeEnergy": "N/A"
  }
]
